version 2
run General-0-20160314-22:15:19-3724
attr configname General
attr datetime 20160314-22:15:19
attr experiment General
attr inifile omnetpp.ini
attr iterationvars ""
attr iterationvars2 $repetition=0
attr measurement ""
attr network ForwardingNetwork
attr processid 3724
attr repetition 0
attr replication #0
attr resultdir results
attr runnumber 0
attr seedset 0

vector 0  ForwardingNetwork.n5E.aLayer  "delay vector"  ETV
0	18	0	0
0	54	0	0
0	89	0	0
