version 2
run General-0-20160302-23:14:35-9387
attr configname General
attr datetime 20160302-23:14:35
attr experiment General
attr inifile omnetpp.ini
attr iterationvars ""
attr iterationvars2 $repetition=0
attr measurement ""
attr network LayerNetwork
attr processid 9387
attr repetition 0
attr replication #0
attr resultdir results
attr runnumber 0
attr seedset 0

vector 6  LayerNetwork.node2.dLayer  "delay vector"  ETV
vector 2  LayerNetwork.node1.dLayer  "delay vector"  ETV
vector 3  LayerNetwork.node1.dLayer  "RTT vector"  ETV
2	94	1.1	0.4
2	97	1.2	0.4
2	100	1.3	0.4
2	151	2.2	0.4
2	155	2.3	0.4
2	159	2.4	0.4
2	163	2.5	0.4
2	214	3.3	0.4
2	221	3.4	0.4
2	227	3.5	0.4
2	232	3.6	0.4
2	237	3.7	0.4
2	241	3.8	0.4
2	279	4.5	0.4
2	292	4.7	0.4
2	305	4.9	0.4
2	312	5	0.4
2	319	5.1	0.4
2	363	5.6	0.4
2	372	5.7	0.4
2	382	5.8	0.4
2	392	5.9	0.4
2	402	6	0.4
2	411	6.1	0.4
2	420	6.2	0.4
2	429	6.3	0.4
2	438	6.4	0.4
2	466	6.7	0.4
2	476	6.8	0.4
2	486	6.9	0.4
2	496	7	0.4
2	507	7.1	0.4
2	518	7.2	0.4
2	529	7.3	0.4
2	548	7.5	0.4
2	557	7.6	0.4
2	566	7.7	0.4
2	585	7.9	0.4
2	595	8	0.4
2	605	8.1	0.4
2	615	8.2	0.4
2	635	8.4	0.4
2	646	8.5	0.4
2	667	8.7	0.4
2	678	8.8	0.4
2	689	8.9	0.4
2	700	9	0.4
2	711	9.1	0.4
2	722	9.2	0.4
2	733	9.3	0.4
2	744	9.4	0.4
2	755	9.5	0.4
2	767	9.6	0.4
2	778	9.7	0.4
2	789	9.8	0.4
2	799	9.9	0.4
2	808	10	0.4
2	817	10.1	0.4
2	834	10.3	0.4
2	843	10.4	0.4
2	852	10.5	0.4
2	860	10.6	0.4
2	869	10.7	0.4
2	884	10.9	0.4
2	908	11.2	0.4
2	917	11.3	0.4
2	936	11.5	0.4
2	946	11.6	0.4
2	966	11.8	0.4
2	976	11.9	0.4
2	986	12	0.4
2	996	12.1	0.4
2	1005	12.2	0.4
2	1014	12.3	0.4
2	1023	12.4	0.4
2	1039	12.6	0.4
2	1047	12.7	0.4
2	1055	12.8	0.4
2	1063	12.9	0.4
2	1080	13.1	0.4
2	1100	13.3	0.4
2	1119	13.5	0.4
2	1128	13.6	0.4
2	1138	13.7	0.4
2	1146	13.8	0.4
2	1153	13.9	0.4
2	1159	14	0.4
2	1164	14.1	0.4
2	1172	14.3	0.4
2	1178	14.5	0.4
2	1180	14.6	0.4
3	94	1.1	0.9
3	97	1.2	0.9
3	100	1.3	0.9
3	151	2.2	0.9
3	155	2.3	0.9
3	159	2.4	0.9
3	163	2.5	0.9
3	214	3.3	0.9
3	221	3.4	0.9
3	227	3.5	0.9
3	232	3.6	0.9
3	237	3.7	0.9
3	241	3.8	0.9
3	279	4.5	0.9
3	292	4.7	0.9
3	305	4.9	0.9
3	312	5	0.9
3	319	5.1	0.9
3	363	5.6	0.9
3	372	5.7	0.9
3	382	5.8	0.9
3	392	5.9	0.9
3	402	6	0.9
3	411	6.1	0.9
3	420	6.2	0.9
3	429	6.3	0.9
3	438	6.4	0.9
3	466	6.7	0.9
3	476	6.8	0.9
3	486	6.9	0.9
3	496	7	0.9
3	507	7.1	0.9
3	518	7.2	0.9
3	529	7.3	0.9
3	548	7.5	0.9
3	557	7.6	0.9
3	566	7.7	0.9
3	585	7.9	0.9
3	595	8	0.9
3	605	8.1	0.9
3	615	8.2	0.9
3	635	8.4	0.9
3	646	8.5	0.9
3	667	8.7	0.9
3	678	8.8	0.9
3	689	8.9	0.9
3	700	9	0.9
3	711	9.1	0.9
3	722	9.2	0.9
3	733	9.3	0.9
3	744	9.4	0.9
3	755	9.5	0.9
3	767	9.6	0.9
3	778	9.7	0.9
3	789	9.8	0.9
3	799	9.9	0.9
3	808	10	0.9
3	817	10.1	0.9
3	834	10.3	0.9
3	843	10.4	0.9
3	852	10.5	0.9
3	860	10.6	0.9
3	869	10.7	0.9
3	884	10.9	0.9
3	908	11.2	0.9
3	917	11.3	0.9
3	936	11.5	0.9
3	946	11.6	0.9
3	966	11.8	0.9
3	976	11.9	0.9
3	986	12	0.9
3	996	12.1	0.9
3	1005	12.2	0.9
3	1014	12.3	0.9
3	1023	12.4	0.9
3	1039	12.6	0.9
3	1047	12.7	0.9
3	1055	12.8	0.9
3	1063	12.9	0.9
3	1080	13.1	0.9
3	1100	13.3	0.9
3	1119	13.5	0.9
3	1128	13.6	0.9
3	1138	13.7	0.9
3	1146	13.8	0.9
3	1153	13.9	0.9
3	1159	14	0.9
3	1164	14.1	0.9
3	1172	14.3	0.9
3	1178	14.5	0.9
3	1180	14.6	0.9
6	71	0.6	0.4
6	74	0.7	0.4
6	78	0.8	0.4
6	118	1.7	0.4
6	123	1.8	0.4
6	128	1.9	0.4
6	133	2	0.4
6	139	2.1	0.4
6	178	2.8	0.4
6	184	2.9	0.4
6	190	3	0.4
6	196	3.1	0.4
6	202	3.2	0.4
6	208	3.3	0.4
6	249	4	0.4
6	259	4.2	0.4
6	270	4.4	0.4
6	275	4.5	0.4
6	281	4.6	0.4
6	318	5.1	0.4
6	325	5.2	0.4
6	332	5.3	0.4
6	340	5.4	0.4
6	349	5.5	0.4
6	358	5.6	0.4
6	367	5.7	0.4
6	376	5.8	0.4
6	386	5.9	0.4
6	417	6.2	0.4
6	426	6.3	0.4
6	435	6.4	0.4
6	444	6.5	0.4
6	452	6.6	0.4
6	461	6.7	0.4
6	471	6.8	0.4
6	492	7	0.4
6	502	7.1	0.4
6	513	7.2	0.4
6	524	7.3	0.4
6	535	7.4	0.4
6	544	7.5	0.4
6	553	7.6	0.4
6	562	7.7	0.4
6	581	7.9	0.4
6	591	8	0.4
6	601	8.1	0.4
6	611	8.2	0.4
6	621	8.3	0.4
6	630	8.4	0.4
6	641	8.5	0.4
6	652	8.6	0.4
6	662	8.7	0.4
6	673	8.8	0.4
6	684	8.9	0.4
6	695	9	0.4
6	706	9.1	0.4
6	717	9.2	0.4
6	728	9.3	0.4
6	739	9.4	0.4
6	750	9.5	0.4
6	761	9.6	0.4
6	773	9.7	0.4
6	784	9.8	0.4
6	795	9.9	0.4
6	804	10	0.4
6	813	10.1	0.4
6	821	10.2	0.4
6	839	10.4	0.4
6	857	10.6	0.4
6	865	10.7	0.4
6	874	10.8	0.4
6	889	11	0.4
6	896	11.1	0.4
6	914	11.3	0.4
6	923	11.4	0.4
6	932	11.5	0.4
6	942	11.6	0.4
6	951	11.7	0.4
6	960	11.8	0.4
6	971	11.9	0.4
6	992	12.1	0.4
6	1001	12.2	0.4
6	1010	12.3	0.4
6	1018	12.4	0.4
6	1035	12.6	0.4
6	1052	12.8	0.4
6	1069	13	0.4
6	1077	13.1	0.4
6	1086	13.2	0.4
6	1096	13.3	0.4
6	1105	13.4	0.4
6	1114	13.5	0.4
6	1123	13.6	0.4
6	1142	13.8	0.4
6	1156	14	0.4
6	1161	14.1	0.4
