version 2
run General-0-20160213-02:42:03-12993
attr configname General
attr datetime 20160213-02:42:03
attr experiment General
attr inifile omnetpp.ini
attr iterationvars ""
attr iterationvars2 $repetition=0
attr measurement ""
attr network LayerNetwork
attr processid 12993
attr repetition 0
attr replication #0
attr resultdir results
attr runnumber 0
attr seedset 0

vector 2  LayerNetwork.node2.aLayer  "delay vector"  ETV
vector 1  LayerNetwork.node1.aLayer  "RTT vector"  ETV
1	21	0	0
1	45	0	0
1	69	0	0
1	93	0	0
1	123	5	5
1	153	10	5
1	177	10	0
1	201	10	0
1	225	10	0
1	255	15	5
1	279	15	0
1	303	15	0
1	327	15	0
1	363	25	10
1	387	25	0
1	411	25	0
1	435	25	0
1	459	25	0
1	483	25	0
1	507	25	0
1	537	30	5
1	579	45	15
1	609	50	5
1	645	60	10
1	669	60	0
1	693	60	0
1	717	60	0
1	741	60	0
1	771	65	5
1	795	65	0
2	9	0	0
2	33	0	0
2	57	0	0
2	81	0	0
2	105	0	0
2	141	10	5
2	165	10	0
2	189	10	0
2	213	10	0
2	243	15	5
2	267	15	0
2	291	15	0
2	315	15	0
2	339	15	0
2	375	25	0
2	399	25	0
2	423	25	0
2	447	25	0
2	471	25	0
2	495	25	0
2	525	30	5
2	561	40	10
2	591	45	0
2	633	60	10
2	657	60	0
2	681	60	0
2	705	60	0
2	729	60	0
2	759	65	5
2	783	65	0
2	813	70	5
